   1C  DUPLA GYÖNGY  (ARAN+FANG+PMNP II.-ELEJÉHEZ)
   1C  3X16/1-ES OLASZ PAMUT+1TX: 
   1C  MINDEN SULY+3TÁRCSA
   1C         -      -            -      - 
   1C  1: <-------------       -------------> -
   1C         -      -            -      - 
   1C       14.5   14.5         14.5   14.5
   1C J2: <-------------       ------------->  HATA-UJJA (DUPLA GYONGY)
   1C       14.5   14.5         14.5   14.5
   1C       14.5    9           14.0   13.0
   1C B2: <-------------       ------------->  BEKEZDES-KORSLAG
   1C        9    15.0          11.5   11.5
   1C         -      -            -      - 
   1C J3: <-------------       -------------> -
   1C         -      -            -      - 
   1C        15.0   0             0    15.0
   1C B3: <-------------       ------------->  KORSLAG
   1C         0    15.0          15.0   0
   1C       13.25  13.25        13.25  13.25
   1C J4: <-------------       ------------->  LEVALASZTAS
   1C       13.25  13.25        13.25  13.25
   1C       13.25  13.25        13.25  13.25
   1C J4: <-------------       ------------->  NYAK (DUPLA GYONGY)
   1C       13.25  13.25        13.25  13.25

   1C-------E:RS1=6   H:RS1=90   U:RS1=68----SP10
   
  11 C-----------------------KOZAK NYAK: SP600 RS1=17
  12 C-----------------------ZIPPES NYAK:SP700 RS1=18 (18 CM-ES ZIPPZARHOZ)
  40  START
  50 YG:6/256;
  56 << S:D.I-DI./DI.-D.I;		       Y:5/2;	     NP4-4   V# V0	ML      S1 S2
  59 >> S:D.I-DI.;                 Y:5;                      ML      S1
  62 << S:U^ND.I/DI.-D.I;        	                           ML   T1 S1
  68 >> S:U^ND.I/R-R;		           Y:6;	                    	 ML   T1    S2
  71 << S:0-R/R-0;		              Y:6/0;            	        ML      S1 S2
  74 >> S:R-R/0-R;	               	Y:2/5;	     NP2-2         ML      S1 S2
  80 << S:0-R/R-0;		                       	                 ML      S1 S2
  83 >> S:0-R/R-0;                             NP3-3         ML      S1 S2
  85 << S:0-R/R-0;		                       		                        S1 S2
  87 >> S:0-R/R-0;                                                   S1 S2
 100 C-----HATA-UJJA-----------
 105 JA2=1000
 110 PA:JA2;
 115 FA=1-2
 120 PM:<FA>1:6. 186:.. 364:.. 546:<.>;
 125 IF RS1<75 PM:<FA>1:6. 140:.. 275:.. 410:.. 546:<.>;
 130 << S:R-0/0-R/UVN.I;                  ML                       S1 S2 T2
 135 >>S:U^NN.I/.I-N.I;     Y:5; NP4-4    ML           T1 S1 
 140 <<S:.I-%T;                 NP2-2   ML         V#    S1
 145 RBEG*RS1
 150 >>S:.I-%T/.I-T;   Y:5/2;                              V#    S1 S2
 155 <<S:.I-T/.I-%T;   Y:2/5;                              V#    S1 S2
 160 REND
 165 >>S:.I-N.I/.I-N.I/UVNN.I;            NP4-4              ML  S1 S2 T2
 170 END
 600 C---KOZAK NYAK-------
 605 START
 610 GOSUB 50-74
 615 GOSUB 105-135
 620 <<S:.I-%T;                    ML         V#    S1
 625 GOSUB 145-165
 630 END
 700 C---ZIPPES NYAK------
 705 START
 710 GOSUB 50-83
 720 GOSUB 85-87*14
 730 GOSUB 105-135
 735 <<S:.I-%T;                    ML         V#    S1
 737 GOSUB 145-165
 740 END
1000 IT
