   1C     CSIPKE PASSZE KORSLAG BEKEZDESSEL JAC:2005/KOCKANYAKU   (PASSZE JAC,:TOBB SOR)
   1C LUSIFIL:NPK=0
   1C GILETTI:NPK=-0.3
  13 NP4=12.5              C:LEVALASZTAS
  15 NP2=10.0              C BEKEZDES
  68 NP3=14.5              C:CSIPKE PASSZE
  70 IF RS17=3 NP3=14.0    C:CSIPKE PASSZE A NYAKHOZ

  40 START        
  50 YG:6/256;
  52 WM=20;WMI=7
  54 YG:6/256;
  56 << S:D.I-DI./DI.-D.I;            Y:5/2;      NP4-4    VU V0 ML       S1 S2

  60 IF #100=30  RS17=0            C E
  62 IF #100=24  RS17=1            C H
  64 IF #100=9   RS17=2            C U
  66 IF #100=18  RS17=3            C NYAK (1 LEVETEL:2DB)
  72 IF RS17=0  RS1=43            C E  220 REP*3   VAGY RS1=37, 220 REP*6
  74 IF RS17=1  RS1=66            C H
  76 IF RS17=2  RS1=21            C U H:51 R:21

 100 >> S:D.I-DI./DI.-D.I/UVNDI.;                                ML       S1 S2 T2
 102 << S:DI.-D.I/UVND.I;             Y:5;	             	        ML       S1    T2
 104 >> S:R-R;		                      Y:6;	                  	   ML          S1
 106 << S:R-0/0-R;                    Y:6/0;            	        ML       S1 S2
 108 >> S:R-R;                        Y:5;        NP2-2         ML       S1
 110 JA1=1062(1002-1004)   C CSIPKE PASSZE
 111 JA2=1204(1204-1218)   C RIZS
 112 PA:1:<JA1>;
 113           FA=6-184;                 C*3LAP
 114           PM:<.>6:3(IFAI);          C*3LAP************
 115 IF RS17=2 FA=5-138                  C*4LAP************
 116 IF RS17=2 PM:<.>7:4(IFA)I;          C*4LAP************
 117 IF RS17=3 FA=7-22;FB=7-15           C*NYAK OSZTAS NELKUL
 118 IF RS17=3 PM:<.>7:33FAFB;           C*NYAK OSZTAS NELKUL
 119 Y:2/2/5/5;
 120 REP*1
 121 << S:R-0;		                             ML   NP3-3           S1
 122 >> S:0-R;		                             ML                    S1
 123 REPEND
 124 << S:R-0/UVNNI;                         ML                    S1 T2
 125 >> S:U^NI/NI-I;                         ML                 T1 S1

C*************CIKLUS**********************************************************
 136 REP*15
 137 WM=0
 138 << S:U^NA;                                   VL1 VKB>6     T1
 140 >> S:U^NY;                                   VR1 VKA>6     T1
 141 WM=20
 142 << S:U^NI/.-N./UVN<1->.;          NP3-3      V0  VKC>1     T1 S1 T2 
 144 >> S:U^NI/.-I(13.4)/UVN<1->NI;                   VKC       T1 S1 T2
 146 REPEND
 147 WM=25
 148 << S:U^NN./.-N./.-N./UVNN.;    Y:2/5;   NP3-3              T1 S1 S2 T2
C*************CIKLUS**********************************************************

 152 IF RS17>0 GOTO400 C**************H-U**********
1002 WIIIIIIIIIIIIIIIIIIIIIIIIIIIIIIIIIIIIIIIIIIIIIIIIIIIIIIIIIIIIIIIIIIIIIIIIIIIIIIIIIIIIIIIIIIIIIIIIIIIIIIIIIIIIIIIIIIIIIIIIIIIIIIIIIIIIIIIIIIIIIIIIIIIIIIIIIIIIIIIIIIIIIIIIIIIIIIIIIIIIIIIIIIIIII
1004 WIIIIIIIIIIIIIIIIIIIIIIIIIIIIIIIIIIIIIIIIIIIIIIIIIIIIIIIIIIIIIIIIIIIIIIIIIIIIIIIIIIIIIIIIIIIIIIIIIIIIIIIIIIIIIIIIIIIIIIIIIIIIIIIIIIIIIIIIIIIIIIIIIIIIIIIIIIIIIIIIIIIIIIIIIIIIIIIIIIIIIIIIIIIIII
1006 .............AIY.............AIY.............AIY.............AIY.............AIY.............AIY.............AIY.............AIY.............AIY.............AIY.............AIY.............AI
1008 .............III.............III.............III.............III.............III.............III.............III.............III.............III.............III.............III.............II
1010 YIIIIIIIIIIIAAIYYIIIIIIIIIIIAAIYYIIIIIIIIIIIAAIYYIIIIIIIIIIIAAIYYIIIIIIIIIIIAAIYYIIIIIIIIIIIAAIYYIIIIIIIIIIIAAIYYIIIIIIIIIIIAAIYYIIIIIIIIIIIAAIYYIIIIIIIIIIIAAIYYIIIIIIIIIIIAAIYYIIIIIIIIIIIAAI
1012 IIIIIIIIIIIIIIIIIIIIIIIIIIIIIIIIIIIIIIIIIIIIIIIIIIIIIIIIIIIIIIIIIIIIIIIIIIIIIIIIIIIIIIIIIIIIIIIIIIIIIIIIIIIIIIIIIIIIIIIIIIIIIIIIIIIIIIIIIIIIIIIIIIIIIIIIIIIIIIIIIIIIIIIIIIIIIIIIIIIIIIIIIIIIIII
1014 YY.........AAAIYYY.........AAAIYYY.........AAAIYYY.........AAAIYYY.........AAAIYYY.........AAAIYYY.........AAAIYYY.........AAAIYYY.........AAAIYYY.........AAAIYYY.........AAAIYYY.........AAAI
1016 II.........IIIIIII.........IIIIIII.........IIIIIII.........IIIIIII.........IIIIIII.........IIIIIII.........IIIIIII.........IIIIIII.........IIIIIII.........IIIIIII.........IIIIIII.........IIII
1018 YYYIIIIIIIAAAAIYYYYIIIIIIIAAAAIYYYYIIIIIIIAAAAIYYYYIIIIIIIAAAAIYYYYIIIIIIIAAAAIYYYYIIIIIIIAAAAIYYYYIIIIIIIAAAAIYYYYIIIIIIIAAAAIYYYYIIIIIIIAAAAIYYYYIIIIIIIAAAAIYYYYIIIIIIIAAAAIYYYYIIIIIIIAAAAI
1020 IIIIIIIIIIIIIIIIIIIIIIIIIIIIIIIIIIIIIIIIIIIIIIIIIIIIIIIIIIIIIIIIIIIIIIIIIIIIIIIIIIIIIIIIIIIIIIIIIIIIIIIIIIIIIIIIIIIIIIIIIIIIIIIIIIIIIIIIIIIIIIIIIIIIIIIIIIIIIIIIIIIIIIIIIIIIIIIIIIIIIIIIIIIIIII
1022 YYYY.....AAAAAIYYYYY.....AAAAAIYYYYY.....AAAAAIYYYYY.....AAAAAIYYYYY.....AAAAAIYYYYY.....AAAAAIYYYYY.....AAAAAIYYYYY.....AAAAAIYYYYY.....AAAAAIYYYYY.....AAAAAIYYYYY.....AAAAAIYYYYY.....AAAAAI
1024 IIII.....IIIIIIIIIII.....IIIIIIIIIII.....IIIIIIIIIII.....IIIIIIIIIII.....IIIIIIIIIII.....IIIIIIIIIII.....IIIIIIIIIII.....IIIIIIIIIII.....IIIIIIIIIII.....IIIIIIIIIII.....IIIIIIIIIII.....IIIIII
1026 IYYYYIIIAAAAIAIYIYYYYIIIAAAAIAIYIYYYYIIIAAAAIAIYIYYYYIIIAAAAIAIYIYYYYIIIAAAAIAIYIYYYYIIIAAAAIAIYIYYYYIIIAAAAIAIYIYYYYIIIAAAAIAIYIYYYYIIIAAAAIAIYIYYYYIIIAAAAIAIYIYYYYIIIAAAAIAIYIYYYYIIIAAAAIAI
1028 IIIII.I.IIIIIIIIIIIII.I.IIIIIIIIIIIII.I.IIIIIIIIIIIII.I.IIIIIIIIIIIII.I.IIIIIIIIIIIII.I.IIIIIIIIIIIII.I.IIIIIIIIIIIII.I.IIIIIIIIIIIII.I.IIIIIIIIIIIII.I.IIIIIIIIIIIII.I.IIIIIIIIIIIII.I.IIIIIII
1030 AIIII.I.IIIIYIIIAIIII.I.IIIIYIIIAIIII.I.IIIIYIIIAIIII.I.IIIIYIIIAIIII.I.IIIIYIIIAIIII.I.IIIIYIIIAIIII.I.IIIIYIIIAIIII.I.IIIIYIIIAIIII.I.IIIIYIIIAIIII.I.IIIIYIIIAIIII.I.IIIIYIIIAIIII.I.IIIIYII
1032 IIIII.I.IIIIIIIIIIIII.I.IIIIIIIIIIIII.I.IIIIIIIIIIIII.I.IIIIIIIIIIIII.I.IIIIIIIIIIIII.I.IIIIIIIIIIIII.I.IIIIIIIIIIIII.I.IIIIIIIIIIIII.I.IIIIIIIIIIIII.I.IIIIIIIIIIIII.I.IIIIIIIIIIIII.I.IIIIIII
1034 IAAIAAIYYIYYIYIAIAAIAAIYYIYYIYIAIAAIAAIYYIYYIYIAIAAIAAIYYIYYIYIAIAAIAAIYYIYYIYIAIAAIAAIYYIYYIYIAIAAIAAIYYIYYIYIAIAAIAAIYYIYYIYIAIAAIAAIYYIYYIYIAIAAIAAIYYIYYIYIAIAAIAAIYYIYYIYIAIAAIAAIYYIYYIYI
1036 IIII..I..IIIIIIIIIII..I..IIIIIIIIIII..I..IIIIIIIIIII..I..IIIIIIIIIII..I..IIIIIIIIIII..I..IIIIIIIIIII..I..IIIIIIIIIII..I..IIIIIIIIIII..I..IIIIIIIIIII..I..IIIIIIIIIII..I..IIIIIIIIIII..I..IIIIII
1038 AAIAAAIYYYIYYIIIAAIAAAIYYYIYYIIIAAIAAAIYYYIYYIIIAAIAAAIYYYIYYIIIAAIAAAIYYYIYYIIIAAIAAAIYYYIYYIIIAAIAAAIYYYIYYIIIAAIAAAIYYYIYYIIIAAIAAAIYYYIYYIIIAAIAAAIYYYIYYIIIAAIAAAIYYYIYYIIIAAIAAAIYYYIYYII
1040 III...I...IIIIIIIII...I...IIIIIIIII...I...IIIIIIIII...I...IIIIIIIII...I...IIIIIIIII...I...IIIIIIIII...I...IIIIIIIII...I...IIIIIIIII...I...IIIIIIIII...I...IIIIIIIII...I...IIIIIIIII...I...IIIII
1042 AIAAAAIYYYYIYYIAAIAAAAIYYYYIYYIAAIAAAAIYYYYIYYIAAIAAAAIYYYYIYYIAAIAAAAIYYYYIYYIAAIAAAAIYYYYIYYIAAIAAAAIYYYYIYYIAAIAAAAIYYYYIYYIAAIAAAAIYYYYIYYIAAIAAAAIYYYYIYYIAAIAAAAIYYYYIYYIAAIAAAAIYYYYIYYI
1044 II....I....IIIIIII....I....IIIIIII....I....IIIIIII....I....IIIIIII....I....IIIIIII....I....IIIIIII....I....IIIIIII....I....IIIIIII....I....IIIIIII....I....IIIIIII....I....IIIIIII....I....IIII
1046 IAAAAAIYYYYYIIIIIAAAAAIYYYYYIIIIIAAAAAIYYYYYIIIIIAAAAAIYYYYYIIIIIAAAAAIYYYYYIIIIIAAAAAIYYYYYIIIIIAAAAAIYYYYYIIIIIAAAAAIYYYYYIIIIIAAAAAIYYYYYIIIIIAAAAAIYYYYYIIIIIAAAAAIYYYYYIIIIIAAAAAIYYYYYIII
1048 I.....I.....IIIII.....I.....IIIII.....I.....IIIII.....I.....IIIII.....I.....IIIII.....I.....IIIII.....I.....IIIII.....I.....IIIII.....I.....IIIII.....I.....IIIII.....I.....IIIII.....I.....III
1050 AAAAAAIYYYYYYIIIAAAAAAIYYYYYYIIIAAAAAAIYYYYYYIIIAAAAAAIYYYYYYIIIAAAAAAIYYYYYYIIIAAAAAAIYYYYYYIIIAAAAAAIYYYYYYIIIAAAAAAIYYYYYYIIIAAAAAAIYYYYYYIIIAAAAAAIYYYYYYIIIAAAAAAIYYYYYYIIIAAAAAAIYYYYYYII
1052 ......I......III......I......III......I......III......I......III......I......III......I......III......I......III......I......III......I......III......I......III......I......III......I......II
1054 AAAAAAIYYYYYYYIAAAAAAAIYYYYYYYIAAAAAAAIYYYYYYYIAAAAAAAIYYYYYYYIAAAAAAAIYYYYYYYIAAAAAAAIYYYYYYYIAAAAAAAIYYYYYYYIAAAAAAAIYYYYYYYIAAAAAAAIYYYYYYYIAAAAAAAIYYYYYYYIAAAAAAAIYYYYYYYIAAAAAAAIYYYYYYYI
1056 ......I.......I.......I.......I.......I.......I.......I.......I.......I.......I.......I.......I.......I.......I.......I.......I.......I.......I.......I.......I.......I.......I.......I.......I
1058 AAAAAAIYYYYYYYIAAAAAAAIYYYYYYYIAAAAAAAIYYYYYYYIAAAAAAAIYYYYYYYIAAAAAAAIYYYYYYYIAAAAAAAIYYYYYYYIAAAAAAAIYYYYYYYIAAAAAAAIYYYYYYYIAAAAAAAIYYYYYYYIAAAAAAAIYYYYYYYIAAAAAAAIYYYYYYYIAAAAAAAIYYYYYYYI
1060 ......I.......I.......I.......I.......I.......I.......I.......I.......I.......I.......I.......I.......I.......I.......I.......I.......I.......I.......I.......I.......I.......I.......I.......I
1062 WAAAAAIYYYYYYYIAAAAAAAIYYYYYYYIAAAAAAAIYYYYYYYIAAAAAAAIYYYYYYYIAAAAAAAIYYYYYYYIAAAAAAAIYYYYYYYIAAAAAAAIYYYYYYYIAAAAAAAIYYYYYYYIAAAAAAAIYYYYYYYIAAAAAAAIYYYYYYYIAAAAAAAIYYYYYYYIAAAAAAAIYYYYYYYI
1064 IIII...IIIIIIIIIIIIII.IIIIIIIIIIIIIIIIIIIIIIIIIIIIIIIIIIIIIIIIIIIIIIIIIIIIIIIIIIIIIIIIIIIIIIII.IIIIIIIIIIIIIIIIIIIIIIIIIIIIIIIIIIIIIIIIII.IIIIIIIIIIIIIIIIIIIIIIIIIIIIIIIIIIIIIIIIIIIII.IIIIIII
