  1C
 10    START
 13   NP1=14.2   C:MINTA
 14   NP2=12.0   C:1/1-ES PASSZE
 15   NP4=11.5   C:LEVALASZTAS
 16   NP6=14.0   C:H-U KREPP
 50    YG:6/1256;
 51   WM=20
 59 << S:D.I-DI./DI.-D.I;              Y:4/3;      NP4-4  V0          S1 S2
 62 >> S:D.I-DI./DI.-D.I/UVNDI.;       Y:5/2;                         S1 S2 T2
 64 << S:U^ND.I/DI.-D.I;               Y:5;                        T1 S1
 66 >> S:U^NDI./D.I-D.I;               Y:6;        NP0-   VL1      T1    S2
 68 << S:R-0/0-D.I/R-0;                Y:0/6/0;                    T1 S1 S2
 70 >> S:R-0/DI.-D.I;                  Y:0/5;      NP2-2  VU V0 ML T1 S1   
 71 << S:DI.-0/0-D.I;                  Y:2/5;      NP2-2  VU          S1 S2
 74 >> S:DI.-D.I/DI.-D.I;                                 VU          S1 S2
 80 << S:DI.-D.I/DI.-D.I/UVND.I;                                      S1 S2 T2
 82 IF RS1=0 GOTO 318 C ***************** NYAK *****************
 84 JA1=1062(1040-1062)   C ELEJE MINTA
 86 JA2=1036(1004-1036)   C KREPP
 88 PA:JA1:JA2;
 84 C ---TEST,628 TU,3LAP----553----------------- 
 92 FA=13-190
 94 PM:<.>9:3(FA..);
 96 IF RS17=1 GOTO 500 C UJJA-HATA
124 C-------------------------------------------------------
160    RBEG*RS1
165    WM=22
210 >> S:U^N<1-2->N./.-N./.-N. /UVNIH;    Y:2/5; V0  NP1-1  T1 S1 S2 T2 C A*TY+OHHH
215    VJA^0
218    WM=18
220 << S:U^N<1-2->IH/.-ITY+OH/0-O/UVNIH;  Y:5/0; VL1        T1 S1 S2 T2 C A*TY+OHHH
222    WM=0
225 >> S:UVNA*T;                                 VL3 VKA>3           T2 C A*TY+OHHH
226    WM=18
230 << S:U^NIH/.-IA*TYH/0-A/UVNIH;        Y:2/0; VR1        T1 S1 S2 T2 C A*TY+OHHH
235    WM=22
240 >> S:U^N<1-2->*TAIH/.-N./.-N./UVNN.;  Y:2/5; VR3 VKB>2  T1 S1 S2 T2 C A*TY+OHHH
245 C
250 << S:U^N<1-2->N./.-N./.-N. /UVNIH;    Y:2/5; V0         T1 S1 S2 T2 C HHHO+YT*A
255    WM=18
260 >> S:U^N<1-2->IH/.-ITY+OH/0-O/UVNIH;  Y:5/0; VR1        T1 S1 S2 T2 C HHHO+YT*A
262    WM=0
265 << S:UVNA*T;                                 VR3                 T2 C HHHO+YT*A
266    WM=18
270 >> S:U^NIH/.-IA*TYH/0-A/UVNIH;        Y:2/0; VL1        T1 S1 S2 T2 C HHHO+YT*A
275    WM=22
280 << S:U^N<1-2->*TAIH/.-N./.-N./UVNN.;  Y:2/5; VL3        T1 S1 S2 T2 C HHHO+YT*A
300    REND
310 >> S:U^SDI./D.I-DI./D.I-DI./UVNDI.;      NP2-2          T1 S1 S2 T2
320    END
500 C *********** UJJA-HATA 553 TU *********
502    PA:1:JA2;
504    IF RS19=1 FA=1-132
506    IF RS19=1 PM:<.>9:4(FA..);
508    Y:2/5;
510    NP6-6
512    RBEG*RS1
514 >> S:U^N<2->N./.-N./.-N./UVNN.;                       T1 S1 S2 T2
516 <<                                                    T1 S1 S2 T2
520    REND
522 >> S:U^SDI./D.I-DI./D.I-DI./UVNDI.;      NP2-2        T1 S1 S2 T2
524    END
1002 WWWWWWWWWWWWWWWWWWWWWWWWWWWWWWWWWWWWWWWWWWWWWWWWWWWWWWWWWWWWWWWWWWWWWWWWWWWWWWWWWWWWWWWWWWWWWWWWWWWW..WWWWWWWWWWWWWWWWWWWWWWWWWWWWWWWWWWWWWWWWWWWWWWWWWWWWWWWWWWWWWWWWWWWWWWWWWWWWWWWWWWWWWWWWWWWWWWWWWWWWW
1004 .I.II.II...I.I.II.II...I.I.II.II...I.I.II.II...I.I.II.II...I.I.II.II...I.I.II.II...I.I.II.II...I.I.II.II...I.I.II.II...I.I.II.II...I.I.II.II...I.I.II.II...I.I.II.II...I.I.II.II...I.I.II.II...I.I.II.II..W
1006 I..I...IIIIII..I...IIIIII..I...IIIIII..I...IIIIII..I...IIIIII..I...IIIIII..I...IIIIII..I...IIIIII..I...IIIIII..I...IIIIII..I...IIIIII..I...IIIIII..I...IIIIII..I...IIIIII..I...IIIIII..I...IIIIII..I...IIIW
1008 .II.I.I.III..II.I.I.III..II.I.I.III..II.I.I.III..II.I.I.III..II.I.I.III..II.I.I.III..II.I.I.III..II.I.I.III..II.I.I.III..II.I.I.III..II.I.I.III..II.I.I.III..II.I.I.III..II.I.I.III..II.I.I.III..II.I.I.IIW
1010 .I..IIII...I.I..IIII...I.I..IIII...I.I..IIII...I.I..IIII...I.I..IIII...I.I..IIII...I.I..IIII...I.I..IIII...I.I..IIII...I.I..IIII...I.I..IIII...I.I..IIII...I.I..IIII...I.I..IIII...I.I..IIII...I.I..IIII..W
1012 I.II...IIII.I.II...IIII.I.II...IIII.I.II...IIII.I.II...IIII.I.II...IIII.I.II...IIII.I.II...IIII.I.II...IIII.I.II...IIII.I.II...IIII.I.II...IIII.I.II...IIII.I.II...IIII.I.II...IIII.I.II...IIII.I.II...IIIW
1014 III..I......III..I......III..I......III..I......III..I......III..I......III..I......III..I......III..I......III..I......III..I......III..I......III..I......III..I......III..I......III..I......III..I....W
1016 ...II.II...I...II.II...I...II.II...I...II.II...I...II.II...I...II.II...I...II.II...I...II.II...I...II.II...I...II.II...I...II.II...I...II.II...I...II.II...I...II.II...I...II.II...I...II.II...I...II.II..W
1018 ...II.III.II...II.III.II...II.III.II...II.III.II...II.III.II...II.III.II...II.III.II...II.III.II...II.III.II...II.III.II...II.III.II...II.III.II...II.III.II...II.III.II...II.III.II...II.III.II...II.III.W
1020 ..II....III...II....III...II....III...II....III...II....III...II....III...II....III...II....III...II....III...II....III...II....III...II....III...II....III...II....III...II....III...II....III...II....IIW
1022 I.I..I.I.I..I.I..I.I.I..I.I..I.I.I..I.I..I.I.I..I.I..I.I.I..I.I..I.I.I..I.I..I.I.I..I.I..I.I.I..I.I..I.I.I..I.I..I.I.I..I.I..I.I.I..I.I..I.I.I..I.I..I.I.I..I.I..I.I.I..I.I..I.I.I..I.I..I.I.I..I.I..I.I.IW
1024 ....I.II...I....I.II...I....I.II...I....I.II...I....I.II...I....I.II...I....I.II...I....I.II...I....I.II...I....I.II...I....I.II...I....I.II...I....I.II...I....I.II...I....I.II...I....I.II...I....I.II..W
1026 ..III.I.I.II..III.I.I.II..III.I.I.II..III.I.I.II..III.I.I.II..III.I.I.II..III.I.I.II..III.I.I.II..III.I.I.II..III.I.I.II..III.I.I.II..III.I.I.II..III.I.I.II..III.I.I.II..III.I.I.II..III.I.I.II..III.I.I.W
1028 II..II.I.II.II..II.I.II.II..II.I.II.II..II.I.II.II..II.I.II.II..II.I.II.II..II.I.II.II..II.I.II.II..II.I.II.II..II.I.II.II..II.I.II.II..II.I.II.II..II.I.II.II..II.I.II.II..II.I.II.II..II.I.II.II..II.I.IW
1030 II.II.IIII..II.II.IIII..II.II.IIII..II.II.IIII..II.II.IIII..II.II.IIII..II.II.IIII..II.II.IIII..II.II.IIII..II.II.IIII..II.II.IIII..II.II.IIII..II.II.IIII..II.II.IIII..II.II.IIII..II.II.IIII..II.II.IIIIW
1032 II.II.IIII..II.II.IIII..II.II.IIII..II.II.IIII..II.II.IIII..II.II.IIII..II.II.IIII..II.II.IIII..II.II.IIII..II.II.IIII..II.II.IIII..II.II.IIII..II.II.IIII..II.II.IIII..II.II.IIII..II.II.IIII..II.II.IIIIW
1034 I.II.I..I..II.II.I..I..II.II.I..I..II.II.I..I..II.II.I..I..II.II.I..I..II.II.I..I..II.II.I..I..II.II.I..I..II.II.I..I..II.II.I..I..II.II.I..I..II.II.I..I..II.II.I..I..II.II.I..I..II.II.I..I..II.II.I..I.W
1036 II.....I.II.II.....I.II.II.....I.II.II.....I.II.II.....I.II.II.....I.II.II.....I.II.II.....I.II.II.....I.II.II.....I.II.II.....I.II.II.....I.II.II.....I.II.II.....I.II.II.....I.II.II.....I.II.II.....I.IW
1038 WWWWWWWWWWWWWWWWWWWWWWWWWWWWWWWWWWWWWWWWWWWWWWWWWWWWWWWWWWWWWWWWWWWWWWWWWWWWWWWWWWWWWWWWWWWWWWWWWWWWWWWWWWWWWWWWWWWWWWWWWWWWWWWWWWWWWWWWWWWWWWWWWWWWWWWWWWWWWWWWWWWWWWWWWWWWWWWWWWWWWWWWWWWWWWWWWWWWWWWWWWW
1040 XXXXXXXXXXXXXXXXXXXX..HHHO+YT*A..XXXXXXXXXXXX..HHHO+YT*A..XXXXXXXXXXXX..HHHO+YT*A..O+YT*A..III...III..III...III..O+YT*A..HHHO+YT*A..XXXXXXXXXXXX..HHHO+YT*A..XXXXXXXXXXXX..HHHO+YT*A..XXXXXXXXXXXXXXXXXXXXW
1042 XXXXXXXXXXXXXXXXXXXX..HHHO+YT*A..XXXXXXXXXXXX..HHHO+YT*A..XXXXXXXXXXXX..HHHO+YT*A..O+YT*A..III..III....III..III..O+YT*A..HHHO+YT*A..XXXXXXXXXXXX..HHHO+YT*A..XXXXXXXXXXXX..HHHO+YT*A..XXXXXXXXXXXXXXXXXXXXW
1044 XXXXXXXXXXXXXXXXXXXX..HHHO+YT*A..XXXXXXXXXXXX..HHHO+YT*A..XXXXXXXXXXXX..HHHO+YT*A..O+YT*A..III.III......III.III..O+YT*A..HHHO+YT*A..XXXXXXXXXXXX..HHHO+YT*A..XXXXXXXXXXXX..HHHO+YT*A..XXXXXXXXXXXXXXXXXXXXW
1046 XXXXXXXXXXXXXXXXXXXX..A*TY+OHHH..XXXXXXXXXXXX..A*TY+OHHH..XXXXXXXXXXXX..A*TY+OHHH..A*TY+O..A*TY+O........A*TY+O..A*TY+O..A*TY+OHHH..XXXXXXXXXXXX..A*TY+OHHH..XXXXXXXXXXXX..A*TY+OHHH..XXXXXXXXXXXXXXXXXXXXW
1048 XXXXXXXXXXXXXXXXXXXX..A*TY+OHHH..XXXXXXXXXXXX..A*TY+OHHH..XXXXXXXXXXXX..A*TY+OHHH..A*TY+O..A*TY+O........A*TY+O..A*TY+O..A*TY+OHHH..XXXXXXXXXXXX..A*TY+OHHH..XXXXXXXXXXXX..A*TY+OHHH..XXXXXXXXXXXXXXXXXXXXW
1050 XXXXXXXXXXXXXXXXXXXX..A*TY+OHHH..XXXXXXXXXXXX..A*TY+OHHH..XXXXXXXXXXXX..A*TY+OHHH..A*TY+O..A*TY+O........A*TY+O..A*TY+O..A*TY+OHHH..XXXXXXXXXXXX..A*TY+OHHH..XXXXXXXXXXXX..A*TY+OHHH..XXXXXXXXXXXXXXXXXXXXW
1052 XXXXXXXXXXXXXXXXXXXX..HHHO+YT*A..XXXXXXXXXXXX..HHHO+YT*A..XXXXXXXXXXXX..HHHO+YT*A..O+YT*A..III.III......III.III..O+YT*A..HHHO+YT*A..XXXXXXXXXXXX..HHHO+YT*A..XXXXXXXXXXXX..HHHO+YT*A..XXXXXXXXXXXXXXXXXXXXW
1054 XXXXXXXXXXXXXXXXXXXX..HHHO+YT*A..XXXXXXXXXXXX..HHHO+YT*A..XXXXXXXXXXXX..HHHO+YT*A..O+YT*A..III..III....III..III..O+YT*A..HHHO+YT*A..XXXXXXXXXXXX..HHHO+YT*A..XXXXXXXXXXXX..HHHO+YT*A..XXXXXXXXXXXXXXXXXXXXW
1056 XXXXXXXXXXXXXXXXXXXX..HHHO+YT*A..XXXXXXXXXXXX..HHHO+YT*A..XXXXXXXXXXXX..HHHO+YT*A..O+YT*A..III...III..III...III..O+YT*A..HHHO+YT*A..XXXXXXXXXXXX..HHHO+YT*A..XXXXXXXXXXXX..HHHO+YT*A..XXXXXXXXXXXXXXXXXXXXW
1058 XXXXXXXXXXXXXXXXXXXX..A*TY+OHHH..XXXXXXXXXXXX..A*TY+OHHH..XXXXXXXXXXXX..A*TY+OHHH..A*TY+O..III....A*TY+O....III..A*TY+O..A*TY+OHHH..XXXXXXXXXXXX..A*TY+OHHH..XXXXXXXXXXXX..A*TY+OHHH..XXXXXXXXXXXXXXXXXXXXW
1060 XXXXXXXXXXXXXXXXXXXX..A*TY+OHHH..XXXXXXXXXXXX..A*TY+OHHH..XXXXXXXXXXXX..A*TY+OHHH..A*TY+O..III....A*TY+O....III..A*TY+O..A*TY+OHHH..XXXXXXXXXXXX..A*TY+OHHH..XXXXXXXXXXXX..A*TY+OHHH..XXXXXXXXXXXXXXXXXXXXW
1062 XXXXXXXXXXXXXXXXXXXX..A*TY+OHHH..XXXXXXXXXXXX..A*TY+OHHH..XXXXXXXXXXXX..A*TY+OHHH..A*TY+O..III....A*TY+O....III..A*TY+O..A*TY+OHHH..XXXXXXXXXXXX..A*TY+OHHH..XXXXXXXXXXXX..A*TY+OHHH..XXXXXXXXXXXXXXXXXXXXW
1064 WWWWWWWWWWWWWWWWWWWWWWWWWWWWWWWWWWWWWWWWWWWWWWWWWWWWWWWWWWWWWWWWWWWWWWWWWWWWWWWWWWWWWWWWWWWWWWWWWWWW..WWWWWWWWWWWWWWWWWWWWWWWWWWWWWWWWWWWWWWWWWWWWWWWWWWWWWWWWWWWWWWWWWWWWWWWWWWWWWWWWWWWWWWWWWWWWWWWWWWWWW
