   1C     CSIPKE PASSZE KORSLAG BEKEZDESSEL ** JAC:RAJZOK 5/LEVELES
   1C APROBB LEVELEK:KT 2006/MADONNA LEVELES 2006

  10 NP1=15.0  C:2SZV. CSIPKE
  12 NP2=11.4  C:BEKEZDES,1/1
  16 NP4=12.5  C:LEVALASZTAS
  68 NP3=15.0  C:SZIMMETRIKUS CSIPKE PASSZE
  40 START        
  50 YG:6/256;	
  52 WM=20;WMI=7
  56 << S:D.I-DI./DI.-D.I;            Y:5/2;      NP4-4    VU V0 ML       S1 S2

  60C IF #100=75  RS17=0            C E-H
  64C IF #100=46  RS17=1            C U
  66C IF #100=23  RS17=2            C NYAK (1 LEVETEL-2DB)

  70 IF RS17=2 GOTO 500           C NYAK
  72 IF RS17=0  RS1=27            C E FEHER LUSI

 100 >>	S:D.I-DI./D.I-DI./UVNDI.;   	Y:5/2;                            S1 S2 T2
 102 <<	S:U^ND.I/DI.-D.I;		          Y:2; 			                       T1 S1
 104 >> S:DI.-D.I;                                          VR1        S1
 106 << S:DI.-0/UVND.I;              Y:5;                              S1    T2
 108 >> S:DI.-D.I;                   Y:6;                   V0 VU         S2
 110 << S:DI.-0/0-R;                 Y:6/0;                    VU      S1 S2
 112 >>	S:DI.-D.I;		                 Y:5;	          NP2-2   V0 VU      S1
 116 << S:DI.-0;                     Y:2;                      VU      S1
 118 >> S:0-D.I;                                               VU      S1
 120 Y:5/5/2/2;
 122 << S:DI.-D.I/UVND.I;                          V0               S1    T2
 124 PA:1:<JA1>;
 126 FA=5-138                            C*4LAP************
 128 PM:<.>7:4(IFA)I;                    C*4LAP************

 130 JA1=1062(1002-1004)   C CSIPKE PASSZE
 132 VJA^1
 134 WM=18
 136 >> S:U^NI/NI-I;                   NP3-3                    T1 S1
 138 REP*15
 140 WM=0
 142 << S:U^NA;                                   VL1 VKB>6     T1
 144 >> S:U^NY;                                   VR1 VKA>6     T1
 146 WM=18
 148 << S:U^NI/.-N./UVN<1->.;          NP3-3      V0  VKC>1     T1 S1 T2 
 150 >> S:U^NI/.-I/UVN<1->NI;                         VKC       T1 S1 T2
 152 REPEND
 154 WM=18
 160 IF RS17=1 GOTO 428 C************** MADONNA UJJA **********

 C******** ELEJE-HATA *******************************************************
 200 JA1=1102(1100-1102);
 202 VJA^0
 204 WM=24
 206 NP1-1
 208 Y:5/2;
 210 REP*5
 212 << S:U^S<1->N./.-N./.-N./UVSNY.;                      V0  VKA<1 T1 S1 S2 T2
 214 >> S:U^S<1->N./.-N./.-N./UVSNA.;                      VL1 VKB>5 T1 S1 S2 T2
 216 REPEND
 218 << S:U^S<1->N./.-N./.-N./UVSNY.;                      V0  VKA<1 T1 S1 S2 T2
 220 >> S:U^S<1->N./.-N./.-N./UVSN.;                       VL1 VKB>5 T1 S1 S2 T2
 222 Y:5/5/2/2;
 224 << S:R-0/UVND.I;                                  V0               S1    T2
 226 GOSUB 130-224
 228 GOSUB 130-208
 230 RBEG*RS1
 232 GOSUB 212-214
 234 REND
 236 << S:U^N<1->N./.-N./.-N./UVNN.;               NP4-4  V0  VKA  T1 S1 S2 T2
 238 >> S:U^NDI./D.I-DI./D.I-DI./UVSDI.;                            T1 S1 S2 T2
 240 END

 C**********************************************************************
 428 << S:U^SD.I/DI.-D.I;    NP4-4         T1 S1
 430 >> S:DI.-D.I/UVNR;                      S1    T2
 432 END

 500 C** CSIPKE NYAK ************
 502 >>	S:D.I-DI./UVNDI.;   	      	 Y:2;                              S1    T2
 504 <<	S:U^ND.I/DI.-D.I;		              			                        T1 S1
 506 >> S:DI.-D.I;                   Y:5;                   VR1        S1
 508 << S:DI.-0/UVND.I;                             NP-0               S1    T2
 510 >> S:DI.-D.I;                   Y:6;                   V0 VU         S2
 512 << S:DI.-0/0-R;                 Y:6/0;                    VU      S1 S2
 514 >>	S:DI.-D.I/0-D.I;		           Y:2/5;	        NP2-2   V0 VU      S1 S2
 516 << S:DI.-0;                     Y:6;                              S1
 518 >>                                                                S1
 520 << S:DI.-D.I;                   Y:2/5;                       VU      S1 S2

 522 PA:1:<JA1>;
 524 FA=1-2
 526 PM:<.>7:I<FA>547:I<.>;           C*NYAK OSZTAS NELKUL
 528 JA1=1102(1100-1102);
 530 >> S:DI.-D.I/DI.-D.I/UVN.Y;                                        S1 S2   T2
 532 VJA^0
 534 NP1-1
 536 WM=22
 538 REP*1
 540 << S:U^S<1->N./.-N./.-N./UVSNA.;                      VL1 VKB>5 T1 S1 S2 T2
 542 >> S:U^S<1->N./.-N./.-N./UVSNY.;                      V0  VKA<1 T1 S1 S2 T2
 544 REPEND
 546 << S:U^S<1->N./.-N./.-N./UVSNA.;                      VL1 VKB>5 T1 S1 S2 T2
 548 >> S:U^S<1->N./.-N./.-N./UVSN.;                       V0  VKA<1 T1 S1 S2 T2
 550 END

 999 <> W0 S0

1100 IA
1102 IY

1002 WIIIIIIIIIIIIIIIIIIIIIIIIIIIIIIIIIIIIIIIIIIIIIIIIIIIIIIIIIIIIIIIIIIIIIIIIIIIIIIIIIIIIIIIIIIIIIIIIIIIIIIIIIIIIIIIIIIIIIIIIIIIIIIIIIIIIIIIIIIIIIIIIIIIIIIIIIIIIIIIIIIIIIIIIIIIIIIIIIIIIIIIIIIIIII
1004 WIIIIIIIIIIIIIIIIIIIIIIIIIIIIIIIIIIIIIIIIIIIIIIIIIIIIIIIIIIIIIIIIIIIIIIIIIIIIIIIIIIIIIIIIIIIIIIIIIIIIIIIIIIIIIIIIIIIIIIIIIIIIIIIIIIIIIIIIIIIIIIIIIIIIIIIIIIIIIIIIIIIIIIIIIIIIIIIIIIIIIIIIIIIIII
1006 .............AIY.............AIY.............AIY.............AIY.............AIY.............AIY.............AIY.............AIY.............AIY.............AIY.............AIY.............AI
1008 .............III.............III.............III.............III.............III.............III.............III.............III.............III.............III.............III.............II
1010 YIIIIIIIIIIIAAIYYIIIIIIIIIIIAAIYYIIIIIIIIIIIAAIYYIIIIIIIIIIIAAIYYIIIIIIIIIIIAAIYYIIIIIIIIIIIAAIYYIIIIIIIIIIIAAIYYIIIIIIIIIIIAAIYYIIIIIIIIIIIAAIYYIIIIIIIIIIIAAIYYIIIIIIIIIIIAAIYYIIIIIIIIIIIAAI
1012 IIIIIIIIIIIIIIIIIIIIIIIIIIIIIIIIIIIIIIIIIIIIIIIIIIIIIIIIIIIIIIIIIIIIIIIIIIIIIIIIIIIIIIIIIIIIIIIIIIIIIIIIIIIIIIIIIIIIIIIIIIIIIIIIIIIIIIIIIIIIIIIIIIIIIIIIIIIIIIIIIIIIIIIIIIIIIIIIIIIIIIIIIIIIIII
1014 YY.........AAAIYYY.........AAAIYYY.........AAAIYYY.........AAAIYYY.........AAAIYYY.........AAAIYYY.........AAAIYYY.........AAAIYYY.........AAAIYYY.........AAAIYYY.........AAAIYYY.........AAAI
1016 II.........IIIIIII.........IIIIIII.........IIIIIII.........IIIIIII.........IIIIIII.........IIIIIII.........IIIIIII.........IIIIIII.........IIIIIII.........IIIIIII.........IIIIIII.........IIII
1018 YYYIIIIIIIAAAAIYYYYIIIIIIIAAAAIYYYYIIIIIIIAAAAIYYYYIIIIIIIAAAAIYYYYIIIIIIIAAAAIYYYYIIIIIIIAAAAIYYYYIIIIIIIAAAAIYYYYIIIIIIIAAAAIYYYYIIIIIIIAAAAIYYYYIIIIIIIAAAAIYYYYIIIIIIIAAAAIYYYYIIIIIIIAAAAI
1020 IIIIIIIIIIIIIIIIIIIIIIIIIIIIIIIIIIIIIIIIIIIIIIIIIIIIIIIIIIIIIIIIIIIIIIIIIIIIIIIIIIIIIIIIIIIIIIIIIIIIIIIIIIIIIIIIIIIIIIIIIIIIIIIIIIIIIIIIIIIIIIIIIIIIIIIIIIIIIIIIIIIIIIIIIIIIIIIIIIIIIIIIIIIIIII
1022 YYYY.....AAAAAIYYYYY.....AAAAAIYYYYY.....AAAAAIYYYYY.....AAAAAIYYYYY.....AAAAAIYYYYY.....AAAAAIYYYYY.....AAAAAIYYYYY.....AAAAAIYYYYY.....AAAAAIYYYYY.....AAAAAIYYYYY.....AAAAAIYYYYY.....AAAAAI
1024 IIII.....IIIIIIIIIII.....IIIIIIIIIII.....IIIIIIIIIII.....IIIIIIIIIII.....IIIIIIIIIII.....IIIIIIIIIII.....IIIIIIIIIII.....IIIIIIIIIII.....IIIIIIIIIII.....IIIIIIIIIII.....IIIIIIIIIII.....IIIIII
1026 IYYYYIIIAAAAIAIYIYYYYIIIAAAAIAIYIYYYYIIIAAAAIAIYIYYYYIIIAAAAIAIYIYYYYIIIAAAAIAIYIYYYYIIIAAAAIAIYIYYYYIIIAAAAIAIYIYYYYIIIAAAAIAIYIYYYYIIIAAAAIAIYIYYYYIIIAAAAIAIYIYYYYIIIAAAAIAIYIYYYYIIIAAAAIAI
1028 IIIII.I.IIIIIIIIIIIII.I.IIIIIIIIIIIII.I.IIIIIIIIIIIII.I.IIIIIIIIIIIII.I.IIIIIIIIIIIII.I.IIIIIIIIIIIII.I.IIIIIIIIIIIII.I.IIIIIIIIIIIII.I.IIIIIIIIIIIII.I.IIIIIIIIIIIII.I.IIIIIIIIIIIII.I.IIIIIII
1030 AIIII.I.IIIIYIIIAIIII.I.IIIIYIIIAIIII.I.IIIIYIIIAIIII.I.IIIIYIIIAIIII.I.IIIIYIIIAIIII.I.IIIIYIIIAIIII.I.IIIIYIIIAIIII.I.IIIIYIIIAIIII.I.IIIIYIIIAIIII.I.IIIIYIIIAIIII.I.IIIIYIIIAIIII.I.IIIIYII
1032 IIIII.I.IIIIIIIIIIIII.I.IIIIIIIIIIIII.I.IIIIIIIIIIIII.I.IIIIIIIIIIIII.I.IIIIIIIIIIIII.I.IIIIIIIIIIIII.I.IIIIIIIIIIIII.I.IIIIIIIIIIIII.I.IIIIIIIIIIIII.I.IIIIIIIIIIIII.I.IIIIIIIIIIIII.I.IIIIIII
1034 IAAIAAIYYIYYIYIAIAAIAAIYYIYYIYIAIAAIAAIYYIYYIYIAIAAIAAIYYIYYIYIAIAAIAAIYYIYYIYIAIAAIAAIYYIYYIYIAIAAIAAIYYIYYIYIAIAAIAAIYYIYYIYIAIAAIAAIYYIYYIYIAIAAIAAIYYIYYIYIAIAAIAAIYYIYYIYIAIAAIAAIYYIYYIYI
1036 IIII..I..IIIIIIIIIII..I..IIIIIIIIIII..I..IIIIIIIIIII..I..IIIIIIIIIII..I..IIIIIIIIIII..I..IIIIIIIIIII..I..IIIIIIIIIII..I..IIIIIIIIIII..I..IIIIIIIIIII..I..IIIIIIIIIII..I..IIIIIIIIIII..I..IIIIII
1038 AAIAAAIYYYIYYIIIAAIAAAIYYYIYYIIIAAIAAAIYYYIYYIIIAAIAAAIYYYIYYIIIAAIAAAIYYYIYYIIIAAIAAAIYYYIYYIIIAAIAAAIYYYIYYIIIAAIAAAIYYYIYYIIIAAIAAAIYYYIYYIIIAAIAAAIYYYIYYIIIAAIAAAIYYYIYYIIIAAIAAAIYYYIYYII
1040 III...I...IIIIIIIII...I...IIIIIIIII...I...IIIIIIIII...I...IIIIIIIII...I...IIIIIIIII...I...IIIIIIIII...I...IIIIIIIII...I...IIIIIIIII...I...IIIIIIIII...I...IIIIIIIII...I...IIIIIIIII...I...IIIII
1042 AIAAAAIYYYYIYYIAAIAAAAIYYYYIYYIAAIAAAAIYYYYIYYIAAIAAAAIYYYYIYYIAAIAAAAIYYYYIYYIAAIAAAAIYYYYIYYIAAIAAAAIYYYYIYYIAAIAAAAIYYYYIYYIAAIAAAAIYYYYIYYIAAIAAAAIYYYYIYYIAAIAAAAIYYYYIYYIAAIAAAAIYYYYIYYI
1044 II....I....IIIIIII....I....IIIIIII....I....IIIIIII....I....IIIIIII....I....IIIIIII....I....IIIIIII....I....IIIIIII....I....IIIIIII....I....IIIIIII....I....IIIIIII....I....IIIIIII....I....IIII
1046 IAAAAAIYYYYYIIIIIAAAAAIYYYYYIIIIIAAAAAIYYYYYIIIIIAAAAAIYYYYYIIIIIAAAAAIYYYYYIIIIIAAAAAIYYYYYIIIIIAAAAAIYYYYYIIIIIAAAAAIYYYYYIIIIIAAAAAIYYYYYIIIIIAAAAAIYYYYYIIIIIAAAAAIYYYYYIIIIIAAAAAIYYYYYIII
1048 I.....I.....IIIII.....I.....IIIII.....I.....IIIII.....I.....IIIII.....I.....IIIII.....I.....IIIII.....I.....IIIII.....I.....IIIII.....I.....IIIII.....I.....IIIII.....I.....IIIII.....I.....III
1050 AAAAAAIYYYYYYIIIAAAAAAIYYYYYYIIIAAAAAAIYYYYYYIIIAAAAAAIYYYYYYIIIAAAAAAIYYYYYYIIIAAAAAAIYYYYYYIIIAAAAAAIYYYYYYIIIAAAAAAIYYYYYYIIIAAAAAAIYYYYYYIIIAAAAAAIYYYYYYIIIAAAAAAIYYYYYYIIIAAAAAAIYYYYYYII
1052 ......I......III......I......III......I......III......I......III......I......III......I......III......I......III......I......III......I......III......I......III......I......III......I......II
1054 AAAAAAIYYYYYYYIAAAAAAAIYYYYYYYIAAAAAAAIYYYYYYYIAAAAAAAIYYYYYYYIAAAAAAAIYYYYYYYIAAAAAAAIYYYYYYYIAAAAAAAIYYYYYYYIAAAAAAAIYYYYYYYIAAAAAAAIYYYYYYYIAAAAAAAIYYYYYYYIAAAAAAAIYYYYYYYIAAAAAAAIYYYYYYYI
1056 ......I.......I.......I.......I.......I.......I.......I.......I.......I.......I.......I.......I.......I.......I.......I.......I.......I.......I.......I.......I.......I.......I.......I.......I
1058 AAAAAAIYYYYYYYIAAAAAAAIYYYYYYYIAAAAAAAIYYYYYYYIAAAAAAAIYYYYYYYIAAAAAAAIYYYYYYYIAAAAAAAIYYYYYYYIAAAAAAAIYYYYYYYIAAAAAAAIYYYYYYYIAAAAAAAIYYYYYYYIAAAAAAAIYYYYYYYIAAAAAAAIYYYYYYYIAAAAAAAIYYYYYYYI
1060 ......I.......I.......I.......I.......I.......I.......I.......I.......I.......I.......I.......I.......I.......I.......I.......I.......I.......I.......I.......I.......I.......I.......I.......I
1062 WAAAAAIYYYYYYYIAAAAAAAIYYYYYYYIAAAAAAAIYYYYYYYIAAAAAAAIYYYYYYYIAAAAAAAIYYYYYYYIAAAAAAAIYYYYYYYIAAAAAAAIYYYYYYYIAAAAAAAIYYYYYYYIAAAAAAAIYYYYYYYIAAAAAAAIYYYYYYYIAAAAAAAIYYYYYYYIAAAAAAAIYYYYYYYI
1064 IIII...IIIIIIIIIIIIII.IIIIIIIIIIIIIIIIIIIIIIIIIIIIIIIIIIIIIIIIIIIIIIIIIIIIIIIIIIIIIIIIIIIIIIII.IIIIIIIIIIIIIIIIIIIIIIIIIIIIIIIIIIIIIIIIII.IIIIIIIIIIIIIIIIIIIIIIIIIIIIIIIIIIIIIIIIIIIII.IIIIIII

1204 I...II.II...
1206 .II.I...I.II
1208 I..I.III.I..
1210 II..I.I.I..I
1212 ..II.I.I.II.
1214 I..III.III..
1216 .II...I...II
1218 .III..I..III

