   1C  CP PAVA2 SZIMMETRIKUS CSIPKE**** E-H-U:CSIPKE ******jobb:cnca 2003-pava c
   2 C REX PIKO PASSZE+1SZV.CSIPKE
   3 C       14.5  4.5            94.5  14.5
   4 C  1: <-------------       ------------->  MINTA
   5 C       14.5  4.5            4.5   14.5
   6 C       
   7 C J2: <-------------       ------------->
   8 C         -     -              -     - 
   9 C       11.5  11.5           11.5  11.5
  10 C B2: <-------------       ------------->  BEKEZDES,PASSZE
  11 C       11.5  11.5           11.5  11.5     (PIKO PANT)
  12 C         -     -              -     -    
  13 C J3: <-------------       -------------> 
  14 C         -     -              -     -
  15 C       
  16 C B3: <-------------       ------------->
  17 C       
  18 C       13.0   13.0         13.0   13.0
  19 C J4: <-------------       ------------->  LEVALASZTAS
  20 C       13.0   13.0         13.0   13.0
  21 C B4:=J4   
  22 C TUAGYKORREKCIOK: V0:->2.25
  23 C                  R1:->3.0   _________R2: - ________R3:-
  24 C                  L1:->1.5     _______L2: - ________L3:-
  25 C  7-8 SULY 
  26 C  TUNIKA                                ELEJE:        R.UJJA: 
  27 C                            NP1=                        
  28 C                                         RS1= RS2=    RS1= RS2=                
  29 C-----------------------+---------------+------------+------------+-------------+
  30 C   2X16/1 PAMUT+1BRILL:      14.25         13  113      6   43    
  31 C                  MELLENY:                19
  32 C-----------------------+---------------+------------+------------+-------------+
  33 C 3X16/1 LUSIFIL+1SZINES TOROK PAMUT:      13  110      6   38    
  34 C   ORSOZATLANUL              14.75      M:19
  35 C-----------------------+---------------+------------+------------+-------------+
  36 C   3X16/1 PAMUT(F-F):        14.75        13   93      6   30
  37 C        ORSOZATLANUL:                         95-100
  38 C                 MELLENY:                 19
  39 C-----------------------+---------------+------------+------------+-------------+
  40 START
  50 YG:6/256;
  52 << S:D.I-DI./DI.-D.I;	          Y:2/5; 	ML     NP4-4   V#   V0	   S1 S2
  54 JA1=1991;
  56 PA:<JA1>; 
  58 FA=2-8; 
  60 PM:<.>6:77FA;
  62 >> S:D.I-DI./UVN.I;	           	Y:2;    ML                 	      S1    T2
  64 << S:U^NA/.I-A;                         ML                     T1 S1
  66 >> S:.I-A;                      Y:5;    ML             VR1        S1
  68 << S:.I-0/UVNA;                         ML     NP-0               S1    T2
  70 >> S:.I-.I;                     Y:6;    ML             V0            S2
  72 << S:.I-0/0-.I;                 Y:6/0;  ML                        S1 S2
  74 >> S:.I-.I/.-0;                 Y:2/5;  ML     NP2-2              S1 S2
  76 << S:0-./.-.;                           ML                        S1 S2
  78 >> S:.-.;                               ML                        S1 S2
  80 Y:2/2/5/5;
  82 <<                                      ML                        S1
  84 >>                                      ML                        S1
  86 << S:.-.;                               ML                        S1
  88 >> S:.I-.I;                             ML                        S1
  90 << S:R-R;                               ML                        S1
  92 >> S:R-R;                               ML                        S1
  94 << S:R-R;                               ML                        S1
  96 >> S:R-R;                               ML                        S1
  98 << S:R-R;                               ML                        S1
 100 >> S:R-R;                               ML                        S1
 105 FA=5-183;
 110 PA:<JA1>5:I183:I;
 115 PM:<.>7:3(FA..);
 120 JA1=1106;
 125 IF RS1<8 FA=9-142                   C*4LAP************
 130 IF RS1<8 PM:<.>7:FA.FA..FA.FA;      C*4LAP************
 135 IF RS1<8 PA:<JA1>9:I142:I;          C*4LAP************
 140 << S:U^NY/UVN.;     NP01-01     T1  T2
 145 >> S:U^NI/UVN.;     NP01-01     T1  T2
 150 JA1=1106(1096-1106);
 155 VJA^0
 160 Y:2/5;
 165 NP1-1
 170 RBEG*RS1 C***** ALSO MINTAELEM HOSSZA ***************
 172 <> S:U^N<1->N./.-N./.-N./UVNN.;              V0        T1 S1 S2 T2
 174 <> S:U^NY;                           NP0-0   VR1       T1
 176 <> S:U^N<1->A;                       NP0-0   VL1       T1
 178 <> S:U^N<1->N./.-N./.-N./UVNN.;              V0        T1 S1 S2 T2
 180 <> S:U^NY;                           NP0-0   VR1       T1
 182 <> S:U^N<1->A;                       NP0-0   VL1       T1
 184 <> S:U^N<1->N./.-N./.-N./UVNN.;              V0        T1 S1 S2 T2
 186 <> S:U^NY;                           NP0-0   VR1       T1
 188 <> S:U^N<1->A;                       NP0-0   VL1       T1
 195 REND C*******************************************
 200 JA1=1094(1004-1090);
 205 RBEG*RS2 C***** FELSO MINTAELEM HOSSZA ***************
 210 GOSUB 172-176
 215 REND     C*******************************************
 216 IF #124=0 GOSUB 172-176
 220 << S:U^N<1->N./.-N./.-N./UVNN.;       Y:2/5;  NP4-4  V0        T1 S1 S2 T2
 225 >> S:U^NDI./D.I-DI./D.I-DI./UVNDI.;                            T1 S1 S2 T2
 230 END
1002 IIII.IIIIIIIIIIIIIIIIIIIIIIIIIIIIIIIIIIIIIIIIIIIIIIIIIIIIIIIIIIIIIIIIIIIIIIIIIIIIIIIIIIIIIIIIIIIIIIIIIIIIIIIIIIIIIIIIIIIIIIIIIIIIIIIIIIIIIIIIIIIIIIIIIIIIIIIIIIIIIIIIIIIIIIIIIIIIIIIII.IIIIIIIII
1004 W...III...IIIIIIIIIIIII...III...IIIIIIIIIIIII...III...IIIIIIIIIIIII...III...IIIIIIIIIIIII...III...IIIIIIIIIIIII...III...IIIIIIIIIIIII...III...IIIIIIIIIIIII...III...IIIIIIIIIIIII...III...IIIIII
1006 ....IIYY...YYYYYIIIIIII...IIYY...YYYYYIIIIIII...IIYY...YYYYYIIIIIII...IIYY...YYYYYIIIIIII...IIYY...YYYYYIIIIIII...IIYY...YYYYYIIIIIII...IIYY...YYYYYIIIIIII...IIYY...YYYYYIIIIIII...IIYY...YYYYI
1008 ...AAIII...IIIIIIAAAAA...AAIII...IIIIIIAAAAA...AAIII...IIIIIIAAAAA...AAIII...IIIIIIAAAAA...AAIII...IIIIIIAAAAA...AAIII...IIIIIIAAAAA...AAIII...IIIIIIAAAAA...AAIII...IIIIIIAAAAA...AAIII...IIIII
1010 ...IIIYYY...YYYYIIIIII...IIIYYY...YYYYIIIIII...IIIYYY...YYYYIIIIII...IIIYYY...YYYYIIIIII...IIIYYY...YYYYIIIIII...IIIYYY...YYYYIIIIII...IIIYYY...YYYYIIIIII...IIIYYY...YYYYIIIIII...IIIYYY...YYYI
1012 ..AAA.III...IIIIIAAAA...AAA.III...IIIIIAAAA...AAA.III...IIIIIAAAA...AAA.III...IIIIIAAAA...AAA.III...IIIIIAAAA...AAA.III...IIIIIAAAA...AAA.III...IIIIIAAAA...AAA.III...IIIIIAAAA...AAA.III...IIII
1014 ..III..YYY...YYYIIIII...III..YYY...YYYIIIII...III..YYY...YYYIIIII...III..YYY...YYYIIIII...III..YYY...YYYIIIII...III..YYY...YYYIIIII...III..YYY...YYYIIIII...III..YYY...YYYIIIII...III..YYY...YYI
1016 .AAA...III...IIIIAAA...AAA...III...IIIIAAA...AAA...III...IIIIAAA...AAA...III...IIIIAAA...AAA...III...IIIIAAA...AAA...III...IIIIAAA...AAA...III...IIIIAAA...AAA...III...IIIIAAA...AAA...III...III
1018 .III....YYY...YYIIII...III....YYY...YYIIII...III....YYY...YYIIII...III....YYY...YYIIII...III....YYY...YYIIII...III....YYY...YYIIII...III....YYY...YYIIII...III....YYY...YYIIII...III....YYY...YI
1020 .AA.....III...IIIAA...AAA.....III...IIIAA...AAA.....III...IIIAA...AAA.....III...IIIAA...AAA.....III...IIIAA...AAA.....III...IIIAA...AAA.....III...IIIAA...AAA.....III...IIIAA...AAA.....III...II
1022 .II......YYY...YIII...III......YYY...YIII...III......YYY...YIII...III......YYY...YIII...III......YYY...YIII...III......YYY...YIII...III......YYY...YIII...III......YYY...YIII...III......YYY...I
1024 .A.......III...IIA...AAA.......III...IIA...AAA.......III...IIA...AAA.......III...IIA...AAA.......III...IIA...AAA.......III...IIA...AAA.......III...IIA...AAA.......III...IIA...AAA.......III...I
1026 .IIIIIIIIIII...III...IIIIIIIIIIIII...III...IIIIIIIIIIIII...III...IIIIIIIIIIIII...III...IIIIIIIIIIIII...III...IIIIIIIIIIIII...III...IIIIIIIIIIIII...III...IIIIIIIIIIIII...III...IIIIIIIIIIIII...I
1028 .IIIIIAAAAA...AAII...IIIIIIIAAAAA...AAII...IIIIIIIAAAAA...AAII...IIIIIIIAAAAA...AAII...IIIIIIIAAAAA...AAII...IIIIIIIAAAAA...AAII...IIIIIIIAAAAA...AAII...IIIIIIIAAAAA...AAII...IIIIIIIAAAAA...AI
1030 .YYYYIIIIII...IIIYY...YYYYYIIIIII...IIIYY...YYYYYIIIIII...IIIYY...YYYYYIIIIII...IIIYY...YYYYYIIIIII...IIIYY...YYYYYIIIIII...IIIYY...YYYYYIIIIII...IIIYY...YYYYYIIIIII...IIIYY...YYYYYIIIIII...II
1032 .IIIIIAAAA...AAAIII...IIIIIIAAAA...AAAIII...IIIIIIAAAA...AAAIII...IIIIIIAAAA...AAAIII...IIIIIIAAAA...AAAIII...IIIIIIAAAA...AAAIII...IIIIIIAAAA...AAAIII...IIIIIIAAAA...AAAIII...IIIIIIAAAA...AAI
1034 .YYYYIIIII...IIIIYYY...YYYYIIIII...IIIIYYY...YYYYIIIII...IIIIYYY...YYYYIIIII...IIIIYYY...YYYYIIIII...IIIIYYY...YYYYIIIII...IIIIYYY...YYYYIIIII...IIIIYYY...YYYYIIIII...IIIIYYY...YYYYIIIII...III
1036 .IIIIIAAA...AAA..III...IIIIIAAA...AAA..III...IIIIIAAA...AAA..III...IIIIIAAA...AAA..III...IIIIIAAA...AAA..III...IIIIIAAA...AAA..III...IIIIIAAA...AAA..III...IIIIIAAA...AAA..III...IIIIIAAA...AAAI
1038 ..YYYIIII...III...YYY...YYYIIII...III...YYY...YYYIIII...III...YYY...YYYIIII...III...YYY...YYYIIII...III...YYY...YYYIIII...III...YYY...YYYIIII...III...YYY...YYYIIII...III...YYY...YYYIIII...IIII
1040 ..IIIIAA...AAA....III...IIIIAA...AAA....III...IIIIAA...AAA....III...IIIIAA...AAA....III...IIIIAA...AAA....III...IIIIAA...AAA....III...IIIIAA...AAA....III...IIIIAA...AAA....III...IIIIAA...AAA.I
1042 ...YYIII...III.....YYY...YYIII...III.....YYY...YYIII...III.....YYY...YYIII...III.....YYY...YYIII...III.....YYY...YYIII...III.....YYY...YYIII...III.....YYY...YYIII...III.....YYY...YYIII...III.I
1044 ...IIIA...AAA......III...IIIA...AAA......III...IIIA...AAA......III...IIIA...AAA......III...IIIA...AAA......III...IIIA...AAA......III...IIIA...AAA......III...IIIA...AAA......III...IIIA...AAA..I
1046 ....YII...III.......YYY...YII...III.......YYY...YII...III.......YYY...YII...III.......YYY...YII...III.......YYY...YII...III.......YYY...YII...III.......YYY...YII...III.......YYY...YII...III..I
1048 ....III...IIIIIIIIIIIII...III...IIIIIIIIIIIII...III...IIIIIIIIIIIII...III...IIIIIIIIIIIII...III...IIIIIIIIIIIII...III...IIIIIIIIIIIII...III...IIIIIIIIIIIII...III...IIIIIIIIIIIII...III...IIIIII
1050 ....IIYY...YYYYYIIIIIII...IIYY...YYYYYIIIIIII...IIYY...YYYYYIIIIIII...IIYY...YYYYYIIIIIII...IIYY...YYYYYIIIIIII...IIYY...YYYYYIIIIIII...IIYY...YYYYYIIIIIII...IIYY...YYYYYIIIIIII...IIYY...YYYYI
1052 ...AAIII...IIIIIIAAAAA...AAIII...IIIIIIAAAAA...AAIII...IIIIIIAAAAA...AAIII...IIIIIIAAAAA...AAIII...IIIIIIAAAAA...AAIII...IIIIIIAAAAA...AAIII...IIIIIIAAAAA...AAIII...IIIIIIAAAAA...AAIII...IIIII
1054 ...IIIYYY...YYYYIIIIII...IIIYYY...YYYYIIIIII...IIIYYY...YYYYIIIIII...IIIYYY...YYYYIIIIII...IIIYYY...YYYYIIIIII...IIIYYY...YYYYIIIIII...IIIYYY...YYYYIIIIII...IIIYYY...YYYYIIIIII...IIIYYY...YYYI
1056 ..AAA.III...IIIIIAAAA...AAA.III...IIIIIAAAA...AAA.III...IIIIIAAAA...AAA.III...IIIIIAAAA...AAA.III...IIIIIAAAA...AAA.III...IIIIIAAAA...AAA.III...IIIIIAAAA...AAA.III...IIIIIAAAA...AAA.III...IIII
1058 ..III..YYY...YYYIIIII...III..YYY...YYYIIIII...III..YYY...YYYIIIII...III..YYY...YYYIIIII...III..YYY...YYYIIIII...III..YYY...YYYIIIII...III..YYY...YYYIIIII...III..YYY...YYYIIIII...III..YYY...YYI
1060 .AAA...III...IIIIAAA...AAA...III...IIIIAAA...AAA...III...IIIIAAA...AAA...III...IIIIAAA...AAA...III...IIIIAAA...AAA...III...IIIIAAA...AAA...III...IIIIAAA...AAA...III...IIIIAAA...AAA...III...III
1062 .III....YYY...YYIIII...III....YYY...YYIIII...III....YYY...YYIIII...III....YYY...YYIIII...III....YYY...YYIIII...III....YYY...YYIIII...III....YYY...YYIIII...III....YYY...YYIIII...III....YYY...YI
1064 .AA.....III...IIIAA...AAA.....III...IIIAA...AAA.....III...IIIAA...AAA.....III...IIIAA...AAA.....III...IIIAA...AAA.....III...IIIAA...AAA.....III...IIIAA...AAA.....III...IIIAA...AAA.....III...II
1066 .II......YYY...YIII...III......YYY...YIII...III......YYY...YIII...III......YYY...YIII...III......YYY...YIII...III......YYY...YIII...III......YYY...YIII...III......YYY...YIII...III......YYY...I
1068 .A.......III...IIA...AAA.......III...IIA...AAA.......III...IIA...AAA.......III...IIA...AAA.......III...IIA...AAA.......III...IIA...AAA.......III...IIA...AAA.......III...IIA...AAA.......III...I
1070 .IIIIIIIIIII...III...IIIIIIIIIIIII...III...IIIIIIIIIIIII...III...IIIIIIIIIIIII...III...IIIIIIIIIIIII...III...IIIIIIIIIIIII...III...IIIIIIIIIIIII...III...IIIIIIIIIIIII...III...IIIIIIIIIIIII...I
1072 .IIIIIAAAAA...AAII...IIIIIIIAAAAA...AAII...IIIIIIIAAAAA...AAII...IIIIIIIAAAAA...AAII...IIIIIIIAAAAA...AAII...IIIIIIIAAAAA...AAII...IIIIIIIAAAAA...AAII...IIIIIIIAAAAA...AAII...IIIIIIIAAAAA...AI
1074 .YYYYIIIIII...IIIYY...YYYYYIIIIII...IIIYY...YYYYYIIIIII...IIIYY...YYYYYIIIIII...IIIYY...YYYYYIIIIII...IIIYY...YYYYYIIIIII...IIIYY...YYYYYIIIIII...IIIYY...YYYYYIIIIII...IIIYY...YYYYYIIIIII...II
1076 .IIIIIAAAA...AAAIII...IIIIIIAAAA...AAAIII...IIIIIIAAAA...AAAIII...IIIIIIAAAA...AAAIII...IIIIIIAAAA...AAAIII...IIIIIIAAAA...AAAIII...IIIIIIAAAA...AAAIII...IIIIIIAAAA...AAAIII...IIIIIIAAAA...AAI
1078 .YYYYIIIII...IIIIYYY...YYYYIIIII...IIIIYYY...YYYYIIIII...IIIIYYY...YYYYIIIII...IIIIYYY...YYYYIIIII...IIIIYYY...YYYYIIIII...IIIIYYY...YYYYIIIII...IIIIYYY...YYYYIIIII...IIIIYYY...YYYYIIIII...III
1080 .IIIIIAAA...AAA..III...IIIIIAAA...AAA..III...IIIIIAAA...AAA..III...IIIIIAAA...AAA..III...IIIIIAAA...AAA..III...IIIIIAAA...AAA..III...IIIIIAAA...AAA..III...IIIIIAAA...AAA..III...IIIIIAAA...AAAI
1082 ..YYYIIII...III...YYY...YYYIIII...III...YYY...YYYIIII...III...YYY...YYYIIII...III...YYY...YYYIIII...III...YYY...YYYIIII...III...YYY...YYYIIII...III...YYY...YYYIIII...III...YYY...YYYIIII...IIII
1084 ..IIIIAA...AAA....III...IIIIAA...AAA....III...IIIIAA...AAA....III...IIIIAA...AAA....III...IIIIAA...AAA....III...IIIIAA...AAA....III...IIIIAA...AAA....III...IIIIAA...AAA....III...IIIIAA...AAA.I
1086 ...YYIII...III.....YYY...YYIII...III.....YYY...YYIII...III.....YYY...YYIII...III.....YYY...YYIII...III.....YYY...YYIII...III.....YYY...YYIII...III.....YYY...YYIII...III.....YYY...YYIII...III.I
1088 ...IIIA...AAA......III...IIIA...AAA......III...IIIA...AAA......III...IIIA...AAA......III...IIIA...AAA......III...IIIA...AAA......III...IIIA...AAA......III...IIIA...AAA......III...IIIA...AAA..I
1090 W...YII...III.......YYY...YII...III.......YYY...YII...III.......YYY...YII...III.......YYY...YII...III.......YYY...YII...III.......YYY...YII...III.......YYY...YII...III.......YYY...YII...III..I
1092 IIIIIIIIIIIIIIIIIIIIIIIIIIIIIIIIIIIIIIIIIIIIIIIIIIIIIIIIIIIIIIIIIIIIIIIIIIIIIIIIIIIIIIIIIIIIIIIIIIIIIIIIIIIIIIIIIIIIIIIIIIIIIIIIIIIIIIIIIIIIIIIIIIIIIIIIIIIIIIIIIIIIIIIIIIIIIIIIIIIIIIIIIIIIIIII
1094 IIIIIIIIIIIIIIIIIIIIIIIIIIIIIIIIIIIIIIIIIIIIIIIIIIIIIIIIIIIIIIIIIIIIIIIIIIIIIIIIIIIIIIIIIIIIIIIIIIIIIIIIIIIIIIIIIIIIIIIIIIIIIIIIIIIIIIIIIIIIIIIIIIIIIIIIIIIIIIIIIIIIIIIIIIIIIIIIIIIIIIIIIIIIIIII
1096 WIIIAIIIIIIIAIIIIIIIAIIIIIIIAIIIIIIIAIIIIIIIAIIIIIIIAIIIIIIIAIIIIIIIAIIIIIIIAIIIIIIIAIIIIIIIAIIIIIIIAIIIIIIIAIIIIIIIAIIIIIIIAIIIIIIIAIIIIIIIAIIIIIIIAIIIIIIIAIIIIIIIAIIIIIIIAIIIIIIIAIIIIIIIAIII
1098 IIIIIIYIIIIIIIYIIIIIIIYIIIIIIIYIIIIIIIYIIIIIIIYIIIIIIIYIIIIIIIYIIIIIIIYIIIIIIIYIIIIIIIYIIIIIIIYIIIIIIIYIIIIIIIYIIIIIIIYIIIIIIIYIIIIIIIYIIIIIIIYIIIIIIIYIIIIIIIYIIIIIIIYIIIIIIIYIIIIIIIYIIIIIIIYI
1100 IIIAAIIIIIIAAIIIIIIAAIIIIIIAAIIIIIIAAIIIIIIAAIIIIIIAAIIIIIIAAIIIIIIAAIIIIIIAAIIIIIIAAIIIIIIAAIIIIIIAAIIIIIIAAIIIIIIAAIIIIIIAAIIIIIIAAIIIIIIAAIIIIIIAAIIIIIIAAIIIIIIAAIIIIIIAAIIIIIIAAIIIIIIAAIII
1102 IIIIIIYYIIIIIIYYIIIIIIYYIIIIIIYYIIIIIIYYIIIIIIYYIIIIIIYYIIIIIIYYIIIIIIYYIIIIIIYYIIIIIIYYIIIIIIYYIIIIIIYYIIIIIIYYIIIIIIYYIIIIIIYYIIIIIIYYIIIIIIYYIIIIIIYYIIIIIIYYIIIIIIYYIIIIIIYYIIIIIIYYIIIIIIYI
1104 IIAAAIIIIIAAAIIIIIAAAIIIIIAAAIIIIIAAAIIIIIAAAIIIIIAAAIIIIIAAAIIIIIAAAIIIIIAAAIIIIIAAAIIIIIAAAIIIIIAAAIIIIIAAAIIIIIAAAIIIIIAAAIIIIIAAAIIIIIAAAIIIIIAAAIIIIIAAAIIIIIAAAIIIIIAAAIIIIIAAAIIIIIAAAIII
1106 IIIIIIYYYIIIIIYYYIIIIIYYYIIIIIYYYIIIIIYYYIIIIIYYYIIIIIYYYIIIIIYYYIIIIIYYYIIIIIYYYIIIIIYYYIIIIIYYYIIIIIYYYIIIIIYYYIIIIIYYYIIIIIYYYIIIIIYYYIIIIIYYYIIIIIYYYIIIIIYYYIIIIIYYYIIIIIYYYIIIIIYYYIIIIIYI
1108 WIII.IIIIIIIIIIIIIIIIIIIIIIIIIIIIIIIIIIIIIIIIIIIIIIIIIIIIIIIIIIIIIIIIIIIIIIIIIIIIIIIIIIIIIIII.IIIIIIIIIIIIIIIIIIIIIIIIIIIIIIIIIIIIIIIIIIIIIIIIIIIIIIIIIIIIIIIIIIIIIIIIIIIIIIIIIIIIIIII.IIIIIIIII
1991 ....AIA
