 1C 2 SZALVEZETOS CSIPKE 3*3-AS FONASSAL:
   - DIANA
   - SEJTES-KT2001
   - ROMBUSZ (BAL-BALLAL)-KT2001
   - ROMBUSZ (FELTARTOTT KREPPEL)-KT2001